TITLE = "Cavity Field Data"
variables="x(m)""y(m)""p(N/m^2)""u(m/s)""v(m/s)""p-exact""u-exact""v-exact""DE-p""DE-u""DE-v"
zone T="n=1"
I= 17 J= 17
DATAPACKING=POINT
0.000000e+00 0.000000e+00 8.013338e-01 5.000000e-01 7.166667e-01 7.500000e-01 5.000000e-01 7.166667e-01 5.133384e-02 0.000000e+00 0.000000e+00
3.125000e-03 0.000000e+00 8.013338e-01 5.098105e-01 7.161222e-01 7.475924e-01 5.098105e-01 7.161222e-01 5.374148e-02 0.000000e+00 0.000000e+00
6.250000e-03 0.000000e+00 8.013338e-01 5.195789e-01 7.144925e-01 7.403926e-01 5.195789e-01 7.144925e-01 6.094120e-02 0.000000e+00 0.000000e+00
9.375000e-03 0.000000e+00 8.013338e-01 5.292635e-01 7.117881e-01 7.284702e-01 5.292635e-01 7.117881e-01 7.286368e-02 0.000000e+00 0.000000e+00
1.250000e-02 0.000000e+00 8.013338e-01 5.388229e-01 7.080268e-01 7.119398e-01 5.388229e-01 7.080268e-01 8.939408e-02 0.000000e+00 0.000000e+00
1.562500e-02 0.000000e+00 8.013338e-01 5.482159e-01 7.032330e-01 6.909606e-01 5.482159e-01 7.032330e-01 1.103732e-01 0.000000e+00 0.000000e+00
1.875000e-02 0.000000e+00 8.013338e-01 5.574025e-01 6.974381e-01 6.657348e-01 5.574025e-01 6.974381e-01 1.355990e-01 0.000000e+00 0.000000e+00
2.187500e-02 0.000000e+00 8.013338e-01 5.663433e-01 6.906800e-01 6.365052e-01 5.663433e-01 6.906800e-01 1.648286e-01 0.000000e+00 0.000000e+00
2.500000e-02 0.000000e+00 8.013338e-01 5.750000e-01 6.830029e-01 6.035534e-01 5.750000e-01 6.830029e-01 1.977805e-01 0.000000e+00 0.000000e+00
2.812500e-02 0.000000e+00 8.013338e-01 5.833355e-01 6.744568e-01 5.671966e-01 5.833355e-01 6.744568e-01 2.341372e-01 0.000000e+00 0.000000e+00
3.125000e-02 0.000000e+00 8.013338e-01 5.913142e-01 6.650976e-01 5.277851e-01 5.913142e-01 6.650976e-01 2.735487e-01 0.000000e+00 0.000000e+00
3.437500e-02 0.000000e+00 8.013338e-01 5.989019e-01 6.549864e-01 4.856984e-01 5.989019e-01 6.549864e-01 3.156355e-01 0.000000e+00 0.000000e+00
3.750000e-02 0.000000e+00 8.013338e-01 6.060660e-01 6.441894e-01 4.413417e-01 6.060660e-01 6.441894e-01 3.599921e-01 0.000000e+00 0.000000e+00
4.062500e-02 0.000000e+00 8.013338e-01 6.127760e-01 6.327770e-01 3.951423e-01 6.127760e-01 6.327770e-01 4.061915e-01 0.000000e+00 0.000000e+00
4.375000e-02 0.000000e+00 8.013338e-01 6.190030e-01 6.208238e-01 3.475452e-01 6.190030e-01 6.208238e-01 4.537887e-01 0.000000e+00 0.000000e+00
4.687500e-02 0.000000e+00 8.013338e-01 6.247204e-01 6.084080e-01 2.990086e-01 6.247204e-01 6.084080e-01 5.023253e-01 0.000000e+00 0.000000e+00
5.000000e-02 0.000000e+00 8.013338e-01 6.299038e-01 5.956105e-01 2.500000e-01 6.299038e-01 5.956105e-01 5.513338e-01 0.000000e+00 0.000000e+00
0.000000e+00 3.125000e-03 8.013338e-01 4.997591e-01 7.165328e-01 7.657039e-01 4.997591e-01 7.165328e-01 3.562992e-02 0.000000e+00 0.000000e+00
3.125000e-03 3.125000e-03 8.013338e-01 0.000000e+00 0.000000e+00 7.644650e-01 5.107967e-01 7.159875e-01 3.686881e-02 -5.107967e-01 -7.159875e-01
6.250000e-03 3.125000e-03 8.013338e-01 0.000000e+00 0.000000e+00 7.584340e-01 5.217923e-01 7.143553e-01 4.289980e-02 -5.217923e-01 -7.143553e-01
9.375000e-03 3.125000e-03 8.013338e-01 0.000000e+00 0.000000e+00 7.476803e-01 5.327041e-01 7.116468e-01 5.365357e-02 -5.327041e-01 -7.116468e-01
1.250000e-02 3.125000e-03 8.013338e-01 0.000000e+00 0.000000e+00 7.323185e-01 5.434904e-01 7.078795e-01 6.901532e-02 -5.434904e-01 -7.078795e-01
1.562500e-02 3.125000e-03 8.013338e-01 0.000000e+00 0.000000e+00 7.125080e-01 5.541103e-01 7.030782e-01 8.882585e-02 -5.541103e-01 -7.030782e-01
1.875000e-02 3.125000e-03 8.013338e-01 0.000000e+00 0.000000e+00 6.884507e-01 5.645236e-01 6.972742e-01 1.128831e-01 -5.645236e-01 -6.972742e-01
2.187500e-02 3.125000e-03 8.013338e-01 0.000000e+00 0.000000e+00 6.603896e-01 5.746910e-01 6.905052e-01 1.409443e-01 -5.746910e-01 -6.905052e-01
2.500000e-02 3.125000e-03 8.013338e-01 0.000000e+00 0.000000e+00 6.286061e-01 5.845740e-01 6.828155e-01 1.727278e-01 -5.845740e-01 -6.828155e-01
2.812500e-02 3.125000e-03 8.013338e-01 0.000000e+00 0.000000e+00 5.934175e-01 5.941357e-01 6.742552e-01 2.079163e-01 -5.941357e-01 -6.742552e-01
3.125000e-02 3.125000e-03 8.013338e-01 0.000000e+00 0.000000e+00 5.551741e-01 6.033402e-01 6.648801e-01 2.461597e-01 -6.033402e-01 -6.648801e-01
3.437500e-02 3.125000e-03 8.013338e-01 0.000000e+00 0.000000e+00 5.142553e-01 6.121534e-01 6.547514e-01 2.870785e-01 -6.121534e-01 -6.547514e-01
3.750000e-02 3.125000e-03 8.013338e-01 0.000000e+00 0.000000e+00 4.710665e-01 6.205428e-01 6.439351e-01 3.302674e-01 -6.205428e-01 -6.439351e-01
4.062500e-02 3.125000e-03 8.013338e-01 0.000000e+00 0.000000e+00 4.260347e-01 6.284776e-01 6.325018e-01 3.752991e-01 -6.284776e-01 -6.325018e-01
4.375000e-02 3.125000e-03 8.013338e-01 0.000000e+00 0.000000e+00 3.796050e-01 6.359292e-01 6.205260e-01 4.217289e-01 -6.359292e-01 -6.205260e-01
4.687500e-02 3.125000e-03 8.013338e-01 0.000000e+00 0.000000e+00 3.322356e-01 6.428707e-01 6.080859e-01 4.690982e-01 -6.428707e-01 -6.080859e-01
5.000000e-02 3.125000e-03 8.013338e-01 6.492777e-01 5.952625e-01 2.843941e-01 6.492777e-01 5.952625e-01 5.169398e-01 0.000000e+00 0.000000e+00
0.000000e+00 6.250000e-03 8.013338e-01 4.990369e-01 7.161314e-01 7.813836e-01 4.990369e-01 7.161314e-01 1.995021e-02 0.000000e+00 0.000000e+00
3.125000e-03 6.250000e-03 8.013338e-01 0.000000e+00 0.000000e+00 7.813135e-01 5.113017e-01 7.155836e-01 2.002037e-02 -5.113017e-01 -7.155836e-01
6.250000e-03 6.250000e-03 8.013338e-01 0.000000e+00 0.000000e+00 7.764511e-01 5.235243e-01 7.139439e-01 2.488273e-02 -5.235243e-01 -7.139439e-01
9.375000e-03 6.250000e-03 8.013338e-01 0.000000e+00 0.000000e+00 7.668658e-01 5.356625e-01 7.112227e-01 3.446807e-02 -5.356625e-01 -7.112227e-01
1.250000e-02 6.250000e-03 8.013338e-01 0.000000e+00 0.000000e+00 7.526722e-01 5.476748e-01 7.074380e-01 4.866169e-02 -5.476748e-01 -7.074380e-01
1.562500e-02 6.250000e-03 8.013338e-01 0.000000e+00 0.000000e+00 7.340293e-01 5.595198e-01 7.026141e-01 6.730450e-02 -5.595198e-01 -7.026141e-01
1.875000e-02 6.250000e-03 8.013338e-01 0.000000e+00 0.000000e+00 7.111393e-01 5.711572e-01 6.967824e-01 9.019457e-02 -5.711572e-01 -6.967824e-01
2.187500e-02 6.250000e-03 8.013338e-01 0.000000e+00 0.000000e+00 6.842448e-01 5.825473e-01 6.899808e-01 1.170891e-01 -5.825473e-01 -6.899808e-01
2.500000e-02 6.250000e-03 8.013338e-01 0.000000e+00 0.000000e+00 6.536272e-01 5.936517e-01 6.822535e-01 1.477067e-01 -5.936517e-01 -6.822535e-01
2.812500e-02 6.250000e-03 8.013338e-01 0.000000e+00 0.000000e+00 6.196038e-01 6.044331e-01 6.736505e-01 1.817301e-01 -6.044331e-01 -6.736505e-01
3.125000e-02 6.250000e-03 8.013338e-01 0.000000e+00 0.000000e+00 5.825245e-01 6.148554e-01 6.642278e-01 2.188093e-01 -6.148554e-01 -6.642278e-01
3.437500e-02 6.250000e-03 8.013338e-01 0.000000e+00 0.000000e+00 5.427690e-01 6.248844e-01 6.540465e-01 2.585649e-01 -6.248844e-01 -6.540465e-01
3.750000e-02 6.250000e-03 8.013338e-01 0.000000e+00 0.000000e+00 5.007422e-01 6.344873e-01 6.431726e-01 3.005916e-01 -6.344873e-01 -6.431726e-01
4.062500e-02 6.250000e-03 8.013338e-01 0.000000e+00 0.000000e+00 4.568713e-01 6.436332e-01 6.316767e-01 3.444625e-01 -6.436332e-01 -6.316767e-01
4.375000e-02 6.250000e-03 8.013338e-01 0.000000e+00 0.000000e+00 4.116012e-01 6.522930e-01 6.196334e-01 3.897327e-01 -6.522930e-01 -6.196334e-01
4.687500e-02 6.250000e-03 8.013338e-01 0.000000e+00 0.000000e+00 3.653900e-01 6.604400e-01 6.071206e-01 4.359438e-01 -6.604400e-01 -6.071206e-01
5.000000e-02 6.250000e-03 8.013338e-01 6.680494e-01 5.942197e-01 3.187051e-01 6.680494e-01 5.942197e-01 4.826287e-01 0.000000e+00 0.000000e+00
0.000000e+00 9.375000e-03 8.013338e-01 4.978353e-01 7.154628e-01 7.970150e-01 4.978353e-01 7.154628e-01 4.318886e-03 0.000000e+00 0.000000e+00
3.125000e-03 9.375000e-03 8.013338e-01 0.000000e+00 0.000000e+00 7.981135e-01 5.113272e-01 7.149109e-01 3.220345e-03 -5.113272e-01 -7.149109e-01
6.250000e-03 9.375000e-03 8.013338e-01 0.000000e+00 0.000000e+00 7.944196e-01 5.247763e-01 7.132586e-01 6.914279e-03 -5.247763e-01 -7.132586e-01
9.375000e-03 9.375000e-03 8.013338e-01 0.000000e+00 0.000000e+00 7.860021e-01 5.381399e-01 7.105166e-01 1.533174e-02 -5.381399e-01 -7.105166e-01
1.250000e-02 9.375000e-03 8.013338e-01 0.000000e+00 0.000000e+00 7.729756e-01 5.513759e-01 7.067025e-01 2.835829e-02 -5.513759e-01 -7.067025e-01
1.562500e-02 9.375000e-03 8.013338e-01 0.000000e+00 0.000000e+00 7.554987e-01 5.644424e-01 7.018410e-01 4.583513e-02 -5.644424e-01 -7.018410e-01
1.875000e-02 9.375000e-03 8.013338e-01 0.000000e+00 0.000000e+00 7.337733e-01 5.772984e-01 6.959634e-01 6.756059e-02 -5.772984e-01 -6.959634e-01
2.187500e-02 9.375000e-03 8.013338e-01 0.000000e+00 0.000000e+00 7.080417e-01 5.899039e-01 6.891075e-01 9.329214e-02 -5.899039e-01 -6.891075e-01
2.500000e-02 9.375000e-03 8.013338e-01 0.000000e+00 0.000000e+00 6.785852e-01 6.022197e-01 6.813175e-01 1.227487e-01 -6.022197e-01 -6.813175e-01
2.812500e-02 9.375000e-03 8.013338e-01 0.000000e+00 0.000000e+00 6.457207e-01 6.142079e-01 6.726436e-01 1.556132e-01 -6.142079e-01 -6.726436e-01
3.125000e-02 9.375000e-03 8.013338e-01 0.000000e+00 0.000000e+00 6.097979e-01 6.258321e-01 6.631417e-01 1.915360e-01 -6.258321e-01 -6.631417e-01
3.437500e-02 9.375000e-03 8.013338e-01 0.000000e+00 0.000000e+00 5.711960e-01 6.370574e-01 6.528729e-01 2.301379e-01 -6.370574e-01 -6.528729e-01
3.750000e-02 9.375000e-03 8.013338e-01 0.000000e+00 0.000000e+00 5.303199e-01 6.478504e-01 6.419032e-01 2.710139e-01 -6.478504e-01 -6.419032e-01
4.062500e-02 9.375000e-03 8.013338e-01 0.000000e+00 0.000000e+00 4.875965e-01 6.581797e-01 6.303033e-01 3.137373e-01 -6.581797e-01 -6.303033e-01
4.375000e-02 9.375000e-03 8.013338e-01 0.000000e+00 0.000000e+00 4.434703e-01 6.680157e-01 6.181478e-01 3.578636e-01 -6.680157e-01 -6.181478e-01
4.687500e-02 9.375000e-03 8.013338e-01 0.000000e+00 0.000000e+00 3.983992e-01 6.773311e-01 6.055147e-01 4.029346e-01 -6.773311e-01 -6.055147e-01
5.000000e-02 9.375000e-03 8.013338e-01 6.861005e-01 5.924852e-01 3.528504e-01 6.861005e-01 5.924852e-01 4.484835e-01 0.000000e+00 0.000000e+00
0.000000e+00 1.250000e-02 8.013338e-01 4.961571e-01 7.145279e-01 8.125738e-01 4.961571e-01 7.145279e-01 -1.123994e-02 0.000000e+00 0.000000e+00
3.125000e-03 1.250000e-02 8.013338e-01 0.000000e+00 0.000000e+00 8.148410e-01 5.108759e-01 7.139701e-01 -1.350714e-02 -5.108759e-01 -7.139701e-01
6.250000e-03 1.250000e-02 8.013338e-01 0.000000e+00 0.000000e+00 8.123152e-01 5.255509e-01 7.123002e-01 -1.098133e-02 -5.255509e-01 -7.123002e-01
9.375000e-03 1.250000e-02 8.013338e-01 0.000000e+00 0.000000e+00 8.050648e-01 5.401383e-01 7.095289e-01 -3.730939e-03 -5.401383e-01 -7.095289e-01
1.250000e-02 1.250000e-02 8.013338e-01 0.000000e+00 0.000000e+00 7.932037e-01 5.545947e-01 7.056739e-01 8.130143e-03 -5.545947e-01 -7.056739e-01
1.562500e-02 1.250000e-02 8.013338e-01 0.000000e+00 0.000000e+00 7.768902e-01 5.688773e-01 7.007597e-01 2.444363e-02 -5.688773e-01 -7.007597e-01
1.875000e-02 1.250000e-02 8.013338e-01 0.000000e+00 0.000000e+00 7.563254e-01 5.829439e-01 6.948178e-01 4.500841e-02 -5.829439e-01 -6.948178e-01
2.187500e-02 1.250000e-02 8.013338e-01 0.000000e+00 0.000000e+00 7.317514e-01 5.967534e-01 6.878860e-01 6.958245e-02 -5.967534e-01 -6.878860e-01
2.500000e-02 1.250000e-02 8.013338e-01 0.000000e+00 0.000000e+00 7.034487e-01 6.102657e-01 6.800086e-01 9.788518e-02 -6.102657e-01 -6.800086e-01
2.812500e-02 1.250000e-02 8.013338e-01 0.000000e+00 0.000000e+00 6.717337e-01 6.234417e-01 6.712356e-01 1.296002e-01 -6.234417e-01 -6.712356e-01
3.125000e-02 1.250000e-02 8.013338e-01 0.000000e+00 0.000000e+00 6.369557e-01 6.362439e-01 6.616231e-01 1.643782e-01 -6.362439e-01 -6.616231e-01
3.437500e-02 1.250000e-02 8.013338e-01 0.000000e+00 0.000000e+00 5.994933e-01 6.486362e-01 6.512323e-01 2.018406e-01 -6.486362e-01 -6.512323e-01
3.750000e-02 1.250000e-02 8.013338e-01 0.000000e+00 0.000000e+00 5.597509e-01 6.605844e-01 6.401291e-01 2.415829e-01 -6.605844e-01 -6.401291e-01
4.062500e-02 1.250000e-02 8.013338e-01 0.000000e+00 0.000000e+00 5.181548e-01 6.720559e-01 6.283844e-01 2.831790e-01 -6.720559e-01 -6.283844e-01
4.375000e-02 1.250000e-02 8.013338e-01 0.000000e+00 0.000000e+00 4.751491e-01 6.830202e-01 6.160728e-01 3.261848e-01 -6.830202e-01 -6.160728e-01
4.687500e-02 1.250000e-02 8.013338e-01 0.000000e+00 0.000000e+00 4.311911e-01 6.934487e-01 6.032723e-01 3.701428e-01 -6.934487e-01 -6.032723e-01
5.000000e-02 1.250000e-02 8.013338e-01 7.033151e-01 5.900643e-01 3.867474e-01 7.033151e-01 5.900643e-01 4.145864e-01 0.000000e+00 0.000000e+00
0.000000e+00 1.562500e-02 8.013338e-01 4.940063e-01 7.133275e-01 8.280361e-01 4.940063e-01 7.133275e-01 -2.670228e-02 0.000000e+00 0.000000e+00
3.125000e-03 1.562500e-02 8.013338e-01 0.000000e+00 0.000000e+00 8.314719e-01 5.099520e-01 7.127622e-01 -3.013808e-02 -5.099520e-01 -7.127622e-01
6.250000e-03 1.562500e-02 8.013338e-01 0.000000e+00 0.000000e+00 8.301138e-01 5.258521e-01 7.110697e-01 -2.878000e-02 -5.258521e-01 -7.110697e-01
9.375000e-03 1.562500e-02 8.013338e-01 0.000000e+00 0.000000e+00 8.240294e-01 5.416609e-01 7.082608e-01 -2.269558e-02 -5.416609e-01 -7.082608e-01
1.250000e-02 1.562500e-02 8.013338e-01 0.000000e+00 0.000000e+00 8.133317e-01 5.573334e-01 7.043531e-01 -1.199784e-02 -5.573334e-01 -7.043531e-01
1.562500e-02 1.562500e-02 8.013338e-01 0.000000e+00 0.000000e+00 7.981780e-01 5.728248e-01 6.993714e-01 3.155805e-03 -5.728248e-01 -6.993714e-01
1.875000e-02 1.562500e-02 8.013338e-01 0.000000e+00 0.000000e+00 7.787687e-01 5.880914e-01 6.933469e-01 2.256511e-02 -5.880914e-01 -6.933469e-01
2.187500e-02 1.562500e-02 8.013338e-01 0.000000e+00 0.000000e+00 7.553449e-01 6.030900e-01 6.863177e-01 4.598893e-02 -6.030900e-01 -6.863177e-01
2.500000e-02 1.562500e-02 8.013338e-01 0.000000e+00 0.000000e+00 7.281863e-01 6.177788e-01 6.783280e-01 7.314755e-02 -6.177788e-01 -6.783280e-01
2.812500e-02 1.562500e-02 8.013338e-01 0.000000e+00 0.000000e+00 6.976085e-01 6.321171e-01 6.694282e-01 1.037254e-01 -6.321171e-01 -6.694282e-01
3.125000e-02 1.562500e-02 8.013338e-01 0.000000e+00 0.000000e+00 6.639597e-01 6.460655e-01 6.596740e-01 1.373741e-01 -6.460655e-01 -6.596740e-01
3.437500e-02 1.562500e-02 8.013338e-01 0.000000e+00 0.000000e+00 6.276179e-01 6.595863e-01 6.491270e-01 1.737159e-01 -6.595863e-01 -6.491270e-01
3.750000e-02 1.562500e-02 8.013338e-01 0.000000e+00 0.000000e+00 5.889866e-01 6.726434e-01 6.378534e-01 2.123473e-01 -6.726434e-01 -6.378534e-01
4.062500e-02 1.562500e-02 8.013338e-01 0.000000e+00 0.000000e+00 5.484911e-01 6.852027e-01 6.259238e-01 2.528427e-01 -6.852027e-01 -6.259238e-01
4.375000e-02 1.562500e-02 8.013338e-01 0.000000e+00 0.000000e+00 5.065747e-01 6.972317e-01 6.134130e-01 2.947592e-01 -6.972317e-01 -6.134130e-01
4.687500e-02 1.562500e-02 8.013338e-01 0.000000e+00 0.000000e+00 4.636940e-01 7.087005e-01 6.003994e-01 3.376399e-01 -7.087005e-01 -6.003994e-01
5.000000e-02 1.562500e-02 8.013338e-01 7.195809e-01 5.869643e-01 4.203146e-01 7.195809e-01 5.869643e-01 3.810192e-01 0.000000e+00 0.000000e+00
0.000000e+00 1.875000e-02 8.013338e-01 4.913881e-01 7.118630e-01 8.433781e-01 4.913881e-01 7.118630e-01 -4.204430e-02 0.000000e+00 0.000000e+00
3.125000e-03 1.875000e-02 8.013338e-01 0.000000e+00 0.000000e+00 8.479825e-01 5.085606e-01 7.112884e-01 -4.664863e-02 -5.085606e-01 -7.112884e-01
6.250000e-03 1.875000e-02 8.013338e-01 0.000000e+00 0.000000e+00 8.477916e-01 5.256847e-01 7.095684e-01 -4.645777e-02 -5.256847e-01 -7.095684e-01
9.375000e-03 1.875000e-02 8.013338e-01 0.000000e+00 0.000000e+00 8.428718e-01 5.427122e-01 7.067135e-01 -4.153796e-02 -5.427122e-01 -7.067135e-01
1.250000e-02 1.875000e-02 8.013338e-01 0.000000e+00 0.000000e+00 8.333348e-01 5.595953e-01 7.027416e-01 -3.200091e-02 -5.595953e-01 -7.027416e-01
1.562500e-02 1.875000e-02 8.013338e-01 0.000000e+00 0.000000e+00 8.193366e-01 5.762866e-01 6.976773e-01 -1.800273e-02 -5.762866e-01 -6.976773e-01
1.875000e-02 1.875000e-02 8.013338e-01 0.000000e+00 0.000000e+00 8.010762e-01 5.927397e-01 6.915521e-01 2.576300e-04 -5.927397e-01 -6.915521e-01
2.187500e-02 1.875000e-02 8.013338e-01 0.000000e+00 0.000000e+00 7.787935e-01 6.089088e-01 6.844041e-01 2.254031e-02 -6.089088e-01 -6.844041e-01
2.500000e-02 1.875000e-02 8.013338e-01 0.000000e+00 0.000000e+00 7.527669e-01 6.247494e-01 6.762777e-01 4.856690e-02 -6.247494e-01 -6.762777e-01
2.812500e-02 1.875000e-02 8.013338e-01 0.000000e+00 0.000000e+00 7.233107e-01 6.402183e-01 6.672233e-01 7.802311e-02 -6.402183e-01 -6.672233e-01
3.125000e-02 1.875000e-02 8.013338e-01 0.000000e+00 0.000000e+00 6.907720e-01 6.552735e-01 6.572970e-01 1.105619e-01 -6.552735e-01 -6.572970e-01
3.437500e-02 1.875000e-02 8.013338e-01 0.000000e+00 0.000000e+00 6.555272e-01 6.698747e-01 6.465604e-01 1.458066e-01 -6.698747e-01 -6.465604e-01
3.750000e-02 1.875000e-02 8.013338e-01 0.000000e+00 0.000000e+00 6.179787e-01 6.839833e-01 6.350798e-01 1.833552e-01 -6.839833e-01 -6.350798e-01
4.062500e-02 1.875000e-02 8.013338e-01 0.000000e+00 0.000000e+00 5.785506e-01 6.975628e-01 6.229262e-01 2.227832e-01 -6.975628e-01 -6.229262e-01
4.375000e-02 1.875000e-02 8.013338e-01 0.000000e+00 0.000000e+00 5.376849e-01 7.105783e-01 6.101746e-01 2.636490e-01 -7.105783e-01 -6.101746e-01
4.687500e-02 1.875000e-02 8.013338e-01 0.000000e+00 0.000000e+00 4.958369e-01 7.229973e-01 5.969036e-01 3.054969e-01 -7.229973e-01 -5.969036e-01
5.000000e-02 1.875000e-02 8.013338e-01 7.347895e-01 5.831948e-01 4.534712e-01 7.347895e-01 5.831948e-01 3.478627e-01 0.000000e+00 0.000000e+00
0.000000e+00 2.187500e-02 8.013338e-01 4.883088e-01 7.101359e-01 8.585762e-01 4.883088e-01 7.101359e-01 -5.724234e-02 0.000000e+00 0.000000e+00
3.125000e-03 2.187500e-02 8.013338e-01 0.000000e+00 0.000000e+00 8.643490e-01 5.067079e-01 7.095505e-01 -6.301511e-02 -5.067079e-01 -7.095505e-01
6.250000e-03 2.187500e-02 8.013338e-01 0.000000e+00 0.000000e+00 8.653247e-01 5.250548e-01 7.077978e-01 -6.399087e-02 -5.250548e-01 -7.077978e-01
9.375000e-03 2.187500e-02 8.013338e-01 0.000000e+00 0.000000e+00 8.615679e-01 5.432976e-01 7.048886e-01 -6.023402e-02 -5.432976e-01 -7.048886e-01
1.250000e-02 2.187500e-02 8.013338e-01 0.000000e+00 0.000000e+00 8.531883e-01 5.613848e-01 7.008408e-01 -5.185448e-02 -5.613848e-01 -7.008408e-01
1.562500e-02 2.187500e-02 8.013338e-01 0.000000e+00 0.000000e+00 8.403404e-01 5.792652e-01 6.956791e-01 -3.900653e-02 -5.792652e-01 -6.956791e-01
1.875000e-02 2.187500e-02 8.013338e-01 0.000000e+00 0.000000e+00 8.232211e-01 5.968887e-01 6.894352e-01 -2.188730e-02 -5.968887e-01 -6.894352e-01
2.187500e-02 2.187500e-02 8.013338e-01 0.000000e+00 0.000000e+00 8.020687e-01 6.142060e-01 6.821472e-01 -7.348582e-04 -6.142060e-01 -6.821472e-01
2.500000e-02 2.187500e-02 8.013338e-01 0.000000e+00 0.000000e+00 7.771597e-01 6.311689e-01 6.738598e-01 2.417417e-02 -6.311689e-01 -6.738598e-01
2.812500e-02 2.187500e-02 8.013338e-01 0.000000e+00 0.000000e+00 7.488066e-01 6.477305e-01 6.646237e-01 5.252728e-02 -6.477305e-01 -6.646237e-01
3.125000e-02 2.187500e-02 8.013338e-01 0.000000e+00 0.000000e+00 7.173547e-01 6.638455e-01 6.544951e-01 8.397915e-02 -6.638455e-01 -6.544951e-01
3.437500e-02 2.187500e-02 8.013338e-01 0.000000e+00 0.000000e+00 6.831788e-01 6.794700e-01 6.435360e-01 1.181550e-01 -6.794700e-01 -6.435360e-01
3.750000e-02 2.187500e-02 8.013338e-01 0.000000e+00 0.000000e+00 6.466795e-01 6.945620e-01 6.318131e-01 1.546544e-01 -6.945620e-01 -6.318131e-01
4.062500e-02 2.187500e-02 8.013338e-01 0.000000e+00 0.000000e+00 6.082791e-01 7.090816e-01 6.193975e-01 1.930547e-01 -7.090816e-01 -6.193975e-01
4.375000e-02 2.187500e-02 8.013338e-01 0.000000e+00 0.000000e+00 5.684180e-01 7.229908e-01 6.063649e-01 2.329159e-01 -7.229908e-01 -6.063649e-01
4.687500e-02 2.187500e-02 8.013338e-01 0.000000e+00 0.000000e+00 5.275498e-01 7.362538e-01 5.927940e-01 2.737841e-01 -7.362538e-01 -5.927940e-01
5.000000e-02 2.187500e-02 8.013338e-01 7.488373e-01 5.787670e-01 4.861373e-01 7.488373e-01 5.787670e-01 3.151965e-01 0.000000e+00 0.000000e+00
0.000000e+00 2.500000e-02 8.013338e-01 4.847759e-01 7.081481e-01 8.736068e-01 4.847759e-01 7.081481e-01 -7.227295e-02 0.000000e+00 0.000000e+00
3.125000e-03 2.500000e-02 8.013338e-01 0.000000e+00 0.000000e+00 8.805479e-01 5.044013e-01 7.075502e-01 -7.921407e-02 -5.044013e-01 -7.075502e-01
6.250000e-03 2.500000e-02 8.013338e-01 0.000000e+00 0.000000e+00 8.826896e-01 5.239696e-01 7.057599e-01 -8.135574e-02 -5.239696e-01 -7.057599e-01
9.375000e-03 2.500000e-02 8.013338e-01 0.000000e+00 0.000000e+00 8.800938e-01 5.434238e-01 7.027881e-01 -7.875996e-02 -5.434238e-01 -7.027881e-01
1.250000e-02 2.500000e-02 8.013338e-01 0.000000e+00 0.000000e+00 8.728681e-01 5.627074e-01 6.986527e-01 -7.153421e-02 -5.627074e-01 -6.986527e-01
1.562500e-02 2.500000e-02 8.013338e-01 0.000000e+00 0.000000e+00 8.611642e-01 5.817644e-01 6.933788e-01 -5.983037e-02 -5.817644e-01 -6.933788e-01
1.875000e-02 2.500000e-02 8.013338e-01 0.000000e+00 0.000000e+00 8.451770e-01 6.005398e-01 6.869981e-01 -4.384317e-02 -6.005398e-01 -6.869981e-01
2.187500e-02 2.500000e-02 8.013338e-01 0.000000e+00 0.000000e+00 8.251421e-01 6.189793e-01 6.795492e-01 -2.380829e-02 -6.189793e-01 -6.795492e-01
2.500000e-02 2.500000e-02 8.013338e-01 0.000000e+00 0.000000e+00 8.013338e-01 6.370302e-01 6.710769e-01 1.166664e-08 -6.370302e-01 -6.710769e-01
2.812500e-02 2.500000e-02 8.013338e-01 0.000000e+00 0.000000e+00 7.740623e-01 6.546407e-01 6.616323e-01 2.727158e-02 -6.546407e-01 -6.616323e-01
3.125000e-02 2.500000e-02 8.013338e-01 0.000000e+00 0.000000e+00 7.436704e-01 6.717610e-01 6.512720e-01 5.766343e-02 -6.717610e-01 -6.512720e-01
3.437500e-02 2.500000e-02 8.013338e-01 0.000000e+00 0.000000e+00 7.105307e-01 6.883427e-01 6.400585e-01 9.080310e-02 -6.883427e-01 -6.400585e-01
3.750000e-02 2.500000e-02 8.013338e-01 0.000000e+00 0.000000e+00 6.750415e-01 7.043395e-01 6.280588e-01 1.262923e-01 -7.043395e-01 -6.280588e-01
4.062500e-02 2.500000e-02 8.013338e-01 0.000000e+00 0.000000e+00 6.376230e-01 7.197072e-01 6.153449e-01 1.637109e-01 -7.197072e-01 -6.153449e-01
4.375000e-02 2.500000e-02 8.013338e-01 0.000000e+00 0.000000e+00 5.987131e-01 7.344035e-01 6.019926e-01 2.026207e-01 -7.344035e-01 -6.019926e-01
4.687500e-02 2.500000e-02 8.013338e-01 0.000000e+00 0.000000e+00 5.587635e-01 7.483889e-01 5.880815e-01 2.425704e-01 -7.483889e-01 -5.880815e-01
5.000000e-02 2.500000e-02 8.013338e-01 7.616260e-01 5.736945e-01 5.182347e-01 7.616260e-01 5.736945e-01 2.830991e-01 0.000000e+00 0.000000e+00
0.000000e+00 2.812500e-02 8.013338e-01 4.807979e-01 7.059018e-01 8.884468e-01 4.807979e-01 7.059018e-01 -8.711298e-02 0.000000e+00 0.000000e+00
3.125000e-03 2.812500e-02 8.013338e-01 0.000000e+00 0.000000e+00 8.965562e-01 5.016494e-01 7.052896e-01 -9.522232e-02 -5.016494e-01 -7.052896e-01
6.250000e-03 2.812500e-02 8.013338e-01 0.000000e+00 0.000000e+00 8.998630e-01 5.224374e-01 7.034566e-01 -9.852911e-02 -5.224374e-01 -7.034566e-01
9.375000e-03 2.812500e-02 8.013338e-01 0.000000e+00 0.000000e+00 8.984261e-01 5.430985e-01 7.004139e-01 -9.709221e-02 -5.430985e-01 -7.004139e-01
1.250000e-02 2.812500e-02 8.013338e-01 0.000000e+00 0.000000e+00 8.923499e-01 5.635698e-01 6.961795e-01 -9.101601e-02 -5.635698e-01 -6.961795e-01
1.562500e-02 2.812500e-02 8.013338e-01 0.000000e+00 0.000000e+00 8.817831e-01 5.837891e-01 6.907786e-01 -8.044929e-02 -5.837891e-01 -6.907786e-01
1.875000e-02 2.812500e-02 8.013338e-01 0.000000e+00 0.000000e+00 8.669176e-01 6.036950e-01 6.842434e-01 -6.558373e-02 -6.036950e-01 -6.842434e-01
2.187500e-02 2.812500e-02 8.013338e-01 0.000000e+00 0.000000e+00 8.479858e-01 6.232274e-01 6.766128e-01 -4.665195e-02 -6.232274e-01 -6.766128e-01
2.500000e-02 2.812500e-02 8.013338e-01 0.000000e+00 0.000000e+00 8.252590e-01 6.423271e-01 6.679320e-01 -2.392519e-02 -6.423271e-01 -6.679320e-01
2.812500e-02 2.812500e-02 8.013338e-01 0.000000e+00 0.000000e+00 7.990445e-01 6.609369e-01 6.582526e-01 2.289376e-03 -6.609369e-01 -6.582526e-01
3.125000e-02 2.812500e-02 8.013338e-01 0.000000e+00 0.000000e+00 7.696821e-01 6.790008e-01 6.476319e-01 3.165172e-02 -6.790008e-01 -6.476319e-01
3.437500e-02 2.812500e-02 8.013338e-01 0.000000e+00 0.000000e+00 7.375415e-01 6.964652e-01 6.361329e-01 6.379230e-02 -6.964652e-01 -6.361329e-01
3.750000e-02 2.812500e-02 8.013338e-01 0.000000e+00 0.000000e+00 7.030182e-01 7.132782e-01 6.238234e-01 9.831569e-02 -7.132782e-01 -6.238234e-01
4.062500e-02 2.812500e-02 8.013338e-01 0.000000e+00 0.000000e+00 6.665293e-01 7.293903e-01 6.107761e-01 1.348045e-01 -7.293903e-01 -6.107761e-01
4.375000e-02 2.812500e-02 8.013338e-01 0.000000e+00 0.000000e+00 6.285103e-01 7.447545e-01 5.970676e-01 1.728235e-01 -7.447545e-01 -5.970676e-01
4.687500e-02 2.812500e-02 8.013338e-01 0.000000e+00 0.000000e+00 5.894100e-01 7.593262e-01 5.827786e-01 2.119238e-01 -7.593262e-01 -5.827786e-01
5.000000e-02 2.812500e-02 8.013338e-01 7.730637e-01 5.679925e-01 5.496865e-01 7.730637e-01 5.679925e-01 2.516474e-01 0.000000e+00 0.000000e+00
0.000000e+00 3.125000e-02 8.013338e-01 4.763843e-01 7.033992e-01 9.030734e-01 4.763843e-01 7.033992e-01 -1.017395e-01 0.000000e+00 0.000000e+00
3.125000e-03 3.125000e-02 8.013338e-01 0.000000e+00 0.000000e+00 9.123508e-01 4.984616e-01 7.027711e-01 -1.110170e-01 -4.984616e-01 -7.027711e-01
6.250000e-03 3.125000e-02 8.013338e-01 0.000000e+00 0.000000e+00 9.168218e-01 5.204675e-01 7.008906e-01 -1.154880e-01 -5.204675e-01 -7.008906e-01
9.375000e-03 3.125000e-02 8.013338e-01 0.000000e+00 0.000000e+00 9.165413e-01 5.423304e-01 6.977686e-01 -1.152075e-01 -5.423304e-01 -6.977686e-01
1.250000e-02 3.125000e-02 8.013338e-01 0.000000e+00 0.000000e+00 9.116099e-01 5.639797e-01 6.934236e-01 -1.102761e-01 -5.639797e-01 -6.934236e-01
1.562500e-02 3.125000e-02 8.013338e-01 0.000000e+00 0.000000e+00 9.021725e-01 5.853452e-01 6.878812e-01 -1.008386e-01 -5.853452e-01 -6.878812e-01
1.875000e-02 3.125000e-02 8.013338e-01 0.000000e+00 0.000000e+00 8.884169e-01 6.063579e-01 6.811738e-01 -8.708306e-02 -6.063579e-01 -6.811738e-01
2.187500e-02 3.125000e-02 8.013338e-01 0.000000e+00 0.000000e+00 8.705720e-01 6.269500e-01 6.733409e-01 -6.923815e-02 -6.269500e-01 -6.733409e-01
2.500000e-02 3.125000e-02 8.013338e-01 0.000000e+00 0.000000e+00 8.489053e-01 6.470551e-01 6.644284e-01 -4.757142e-02 -6.470551e-01 -6.644284e-01
2.812500e-02 3.125000e-02 8.013338e-01 0.000000e+00 0.000000e+00 8.237202e-01 6.666086e-01 6.544886e-01 -2.238635e-02 -6.666086e-01 -6.544886e-01
3.125000e-02 3.125000e-02 8.013338e-01 0.000000e+00 0.000000e+00 7.953532e-01 6.855477e-01 6.435796e-01 5.980662e-03 -6.855477e-01 -6.435796e-01
3.437500e-02 3.125000e-02 8.013338e-01 0.000000e+00 0.000000e+00 7.641702e-01 7.038118e-01 6.317651e-01 3.716364e-02 -7.038118e-01 -6.317651e-01
3.750000e-02 3.125000e-02 8.013338e-01 0.000000e+00 0.000000e+00 7.305632e-01 7.213428e-01 6.191141e-01 7.077067e-02 -7.213428e-01 -6.191141e-01
4.062500e-02 3.125000e-02 8.013338e-01 0.000000e+00 0.000000e+00 6.949461e-01 7.380851e-01 6.057001e-01 1.063878e-01 -7.380851e-01 -6.057001e-01
4.375000e-02 3.125000e-02 8.013338e-01 0.000000e+00 0.000000e+00 6.577508e-01 7.539856e-01 5.916012e-01 1.435831e-01 -7.539856e-01 -5.916012e-01
4.687500e-02 3.125000e-02 8.013338e-01 0.000000e+00 0.000000e+00 6.194229e-01 7.689944e-01 5.768990e-01 1.819109e-01 -7.689944e-01 -5.768990e-01
5.000000e-02 3.125000e-02 8.013338e-01 7.830648e-01 5.616784e-01 5.804174e-01 7.830648e-01 5.616784e-01 2.209164e-01 0.000000e+00 0.000000e+00
0.000000e+00 3.437500e-02 8.013338e-01 4.715457e-01 7.006431e-01 9.174639e-01 4.715457e-01 7.006431e-01 -1.161301e-01 0.000000e+00 0.000000e+00
3.125000e-03 3.437500e-02 8.013338e-01 0.000000e+00 0.000000e+00 9.279093e-01 4.948487e-01 6.999975e-01 -1.265754e-01 -4.948487e-01 -6.999975e-01
6.250000e-03 3.437500e-02 8.013338e-01 0.000000e+00 0.000000e+00 9.335435e-01 5.180703e-01 6.980643e-01 -1.322096e-01 -5.180703e-01 -6.980643e-01
9.375000e-03 3.437500e-02 8.013338e-01 0.000000e+00 0.000000e+00 9.344167e-01 5.411295e-01 6.948549e-01 -1.330829e-01 -5.411295e-01 -6.948549e-01
1.250000e-02 3.437500e-02 8.013338e-01 0.000000e+00 0.000000e+00 9.306248e-01 5.639459e-01 6.903879e-01 -1.292909e-01 -5.639459e-01 -6.903879e-01
1.562500e-02 3.437500e-02 8.013338e-01 0.000000e+00 0.000000e+00 9.223079e-01 5.864398e-01 6.846893e-01 -1.209741e-01 -5.864398e-01 -6.846893e-01
1.875000e-02 3.437500e-02 8.013338e-01 0.000000e+00 0.000000e+00 9.096494e-01 6.085330e-01 6.777922e-01 -1.083155e-01 -6.085330e-01 -6.777922e-01
2.187500e-02 3.437500e-02 8.013338e-01 0.000000e+00 0.000000e+00 8.928734e-01 6.301483e-01 6.697369e-01 -9.153953e-02 -6.301483e-01 -6.697369e-01
2.500000e-02 3.437500e-02 8.013338e-01 0.000000e+00 0.000000e+00 8.722429e-01 6.512107e-01 6.605699e-01 -7.090902e-02 -6.512107e-01 -6.605699e-01
2.812500e-02 3.437500e-02 8.013338e-01 0.000000e+00 0.000000e+00 8.480569e-01 6.716467e-01 6.503446e-01 -4.672304e-02 -6.716467e-01 -6.503446e-01
3.125000e-02 3.437500e-02 8.013338e-01 0.000000e+00 0.000000e+00 8.206475e-01 6.913856e-01 6.391202e-01 -1.931363e-02 -6.913856e-01 -6.391202e-01
3.437500e-02 3.437500e-02 8.013338e-01 0.000000e+00 0.000000e+00 7.903763e-01 7.103588e-01 6.269615e-01 1.095752e-02 -7.103588e-01 -6.269615e-01
3.750000e-02 3.437500e-02 8.013338e-01 0.000000e+00 0.000000e+00 7.576312e-01 7.285007e-01 6.139387e-01 4.370266e-02 -7.285007e-01 -6.139387e-01
4.062500e-02 3.437500e-02 8.013338e-01 0.000000e+00 0.000000e+00 7.228220e-01 7.457486e-01 6.001270e-01 7.851189e-02 -7.457486e-01 -6.001270e-01
4.375000e-02 3.437500e-02 8.013338e-01 0.000000e+00 0.000000e+00 6.863766e-01 7.620430e-01 5.856057e-01 1.149572e-01 -7.620430e-01 -5.856057e-01
4.687500e-02 3.437500e-02 8.013338e-01 0.000000e+00 0.000000e+00 6.487370e-01 7.773279e-01 5.704582e-01 1.525968e-01 -7.773279e-01 -5.704582e-01
5.000000e-02 3.437500e-02 8.013338e-01 7.915510e-01 5.547710e-01 6.103543e-01 7.915510e-01 5.547710e-01 1.909795e-01 0.000000e+00 0.000000e+00
0.000000e+00 3.750000e-02 8.013338e-01 4.662939e-01 6.976365e-01 9.315962e-01 4.662939e-01 6.976365e-01 -1.302624e-01 0.000000e+00 0.000000e+00